 Scan of dihedral angle.
GAUSSIAN              9 MOL ORBITALS     72 PRIMITIVES        6 NUCLEI
  C    1    (CENTRE  1)  -1.26388437  0.03462368 -0.00009790  CHARGE =  6.0
  H    2    (CENTRE  2)  -1.85616988  2.01641926 -0.00094513  CHARGE =  1.0
  H    3    (CENTRE  3)  -2.05075326 -0.87802893  1.67924606  CHARGE =  1.0
  H    4    (CENTRE  4)  -2.05031700 -0.88031413 -1.67822405  CHARGE =  1.0
  O    5    (CENTRE  5)   1.42218325 -0.23745491  0.00013041  CHARGE =  8.0
  H    6    (CENTRE  6)   2.16308038  1.43382100 -0.00053276  CHARGE =  1.0
CENTRE ASSIGNMENTS    1  1  1  1  1  1  1  1  1  1  1  1  1  1  1  1  1  1  1  1
CENTRE ASSIGNMENTS    1  1  1  1  1  1  1  1  2  2  2  2  3  3  3  3  4  4  4  4
CENTRE ASSIGNMENTS    5  5  5  5  5  5  5  5  5  5  5  5  5  5  5  5  5  5  5  5
CENTRE ASSIGNMENTS    5  5  5  5  5  5  5  5  6  6  6  6
TYPE ASSIGNMENTS      1  1  1  1  1  1  1  1  1  2  2  2  3  3  3  4  4  4  1  2
TYPE ASSIGNMENTS      3  4  5  6  7  8  9 10  1  1  1  1  1  1  1  1  1  1  1  1
TYPE ASSIGNMENTS      1  1  1  1  1  1  1  1  1  2  2  2  3  3  3  4  4  4  1  2
TYPE ASSIGNMENTS      3  4  5  6  7  8  9 10  1  1  1  1
EXPONENTS  0.3047525D+04 0.4573695D+03 0.1039487D+03 0.2921016D+02 0.9286663D+01
EXPONENTS  0.3163927D+01 0.7868272D+01 0.1881289D+01 0.5442493D+00 0.7868272D+01
EXPONENTS  0.1881289D+01 0.5442493D+00 0.7868272D+01 0.1881289D+01 0.5442493D+00
EXPONENTS  0.7868272D+01 0.1881289D+01 0.5442493D+00 0.1687145D+00 0.1687145D+00
EXPONENTS  0.1687145D+00 0.1687145D+00 0.8000000D+00 0.8000000D+00 0.8000000D+00
EXPONENTS  0.8000000D+00 0.8000000D+00 0.8000000D+00 0.1873114D+02 0.2825394D+01
EXPONENTS  0.6401217D+00 0.1612778D+00 0.1873114D+02 0.2825394D+01 0.6401217D+00
EXPONENTS  0.1612778D+00 0.1873114D+02 0.2825394D+01 0.6401217D+00 0.1612778D+00
EXPONENTS  0.5484672D+04 0.8252349D+03 0.1880470D+03 0.5296450D+02 0.1689757D+02
EXPONENTS  0.5799635D+01 0.1553962D+02 0.3599934D+01 0.1013762D+01 0.1553962D+02
EXPONENTS  0.3599934D+01 0.1013762D+01 0.1553962D+02 0.3599934D+01 0.1013762D+01
EXPONENTS  0.1553962D+02 0.3599934D+01 0.1013762D+01 0.2700058D+00 0.2700058D+00
EXPONENTS  0.2700058D+00 0.2700058D+00 0.8000000D+00 0.8000000D+00 0.8000000D+00
EXPONENTS  0.8000000D+00 0.8000000D+00 0.8000000D+00 0.1873114D+02 0.2825394D+01
EXPONENTS  0.6401217D+00 0.1612778D+00
MO    1     MO 0.0        OCC NO =    2.0000000  ORB. ENERGY =  -20.557318
 -0.10251488D-04 -0.18911993D-04 -0.30529821D-04 -0.39740755D-04 -0.33910858D-04
 -0.11708605D-04 -0.99362595D-04 -0.45796129D-04  0.12841713D-03  0.46737296D-03
  0.35835194D-03  0.17884273D-03 -0.73880563D-04 -0.56646929D-04 -0.28270788D-04
  0.51921776D-07  0.39810324D-07  0.19868142D-07  0.78106545D-05 -0.18234340D-04
  0.42136033D-04 -0.94404851D-08  0.73641313D-04 -0.39423529D-04 -0.82361380D-04
  0.10580330D-04  0.10835361D-07 -0.52484785D-07 -0.13667577D-04 -0.23182798D-04
 -0.26392796D-04 -0.27947359D-04 -0.26580946D-06 -0.45086315D-06 -0.51329176D-06
 -0.36605738D-05 -0.26204103D-06 -0.44447118D-06 -0.50601473D-06 -0.36472374D-05
  0.82728229D+00  0.15226410D+01  0.24639206D+01  0.32388926D+01  0.27779794D+01
  0.94983833D+00 -0.13071213D-01 -0.58323500D-02  0.17223008D-01 -0.19565519D-02
 -0.15074177D-02 -0.66183757D-03  0.35889026D-02  0.27650560D-02  0.12140085D-02
 -0.14554469D-05 -0.11213434D-05 -0.49233015D-06  0.10464935D-02  0.81525418D-04
 -0.14819842D-03  0.57021920D-07 -0.46790498D-02 -0.45180335D-02 -0.42742472D-02
 -0.75333439D-04  0.21620909D-07  0.19622426D-06  0.82933863D-04  0.14067153D-03
  0.16014956D-03 -0.37808434D-04
MO    2     MO 0.0        OCC NO =    2.0000000  ORB. ENERGY =  -11.272349
  0.53407581D+00  0.98526558D+00  0.15905241D+01  0.20703898D+01  0.17666674D+01
  0.60998780D+00 -0.10934438D-01 -0.50396727D-02  0.14131768D-01  0.92588842D-03
  0.70991251D-03  0.35429610D-03  0.35222349D-04  0.27006263D-04  0.13478018D-04
  0.20352934D-06  0.15605339D-06  0.77881579D-07 -0.22432336D-02  0.75667888D-04
 -0.57117584D-05 -0.89774511D-07 -0.18006430D-02 -0.19778025D-02 -0.19945533D-02
 -0.28314979D-04  0.68264947D-07  0.26731025D-06  0.11329984D-04  0.19217797D-04
  0.21878783D-04  0.44036574D-03  0.15662025D-04  0.26565758D-04  0.30244177D-04
  0.44509358D-03  0.15618091D-04  0.26491238D-04  0.30159338D-04  0.44506318D-03
 -0.12382827D-03 -0.22791013D-03 -0.36880161D-03 -0.48480003D-03 -0.41581017D-03
 -0.14217256D-03 -0.74963608D-04 -0.33448616D-04  0.98774211D-04 -0.35643837D-03
 -0.27461655D-03 -0.12057146D-03  0.15868580D-03  0.12225886D-03  0.53678223D-04
 -0.19378022D-06 -0.14929721D-06 -0.65549518D-07  0.35880481D-03  0.36393430D-04
 -0.35276900D-04  0.75417338D-07 -0.91488832D-03 -0.60794592D-05  0.31179101D-04
  0.13552812D-03 -0.24876222D-06 -0.56431256D-08 -0.10896586D-05 -0.18482672D-05
 -0.21041869D-05  0.47047395D-04
MO    3     MO 0.0        OCC NO =    2.0000000  ORB. ENERGY =   -1.345384
 -0.36669900D-01 -0.67648804D-01 -0.10920615D+00 -0.14215395D+00 -0.12130023D+00
 -0.41882053D-01 -0.50095138D-01 -0.23088803D-01  0.64743414D-01  0.12008090D+00
  0.92070415D-01  0.45949590D-01 -0.52600117D-02 -0.40330433D-02 -0.20127713D-02
  0.61719336D-05  0.47322472D-05  0.23617230D-05  0.93106115D-02  0.29120770D-03
  0.10810392D-03  0.16302845D-06  0.26964635D-01 -0.51518880D-02 -0.61650023D-02
 -0.31422360D-02  0.38962384D-05  0.18101430D-05  0.53674886D-02  0.91042766D-02
  0.10364897D-01  0.10286119D-02  0.50711983D-02  0.86017121D-02  0.97927452D-02
  0.53904306D-03  0.50724179D-02  0.86037808D-02  0.97951003D-02  0.53950847D-03
 -0.16904003D+00 -0.31112390D+00 -0.50345720D+00 -0.66180858D+00 -0.56762937D+00
 -0.19408212D+00 -0.28341682D+00 -0.12646003D+00  0.37343817D+00 -0.13639838D+00
 -0.10508760D+00 -0.46139115D-01  0.22343411D+00  0.17214393D+00  0.75580459D-01
 -0.10126474D-03 -0.78019024D-04 -0.34254554D-04  0.11529514D+00 -0.69614849D-02
  0.11962781D-01 -0.54394068D-05  0.18915581D-01  0.23654391D-01 -0.12415840D-02
  0.97466601D-02 -0.22492424D-05 -0.19929684D-04  0.26125843D-01  0.44314374D-01
  0.50450349D-01 -0.35816325D-03
MO    4     MO 0.0        OCC NO =    2.0000000  ORB. ENERGY =   -0.922418
 -0.95403329D-01 -0.17600051D+00 -0.28411940D+00 -0.36983904D+00 -0.31558432D+00
 -0.10896368D+00 -0.13784787D+00 -0.63533959D-01  0.17815585D+00 -0.94425814D-01
 -0.72399725D-01 -0.36132537D-01 -0.15099516D-02 -0.11577351D-02 -0.57779096D-03
 -0.39960513D-05 -0.30639187D-05 -0.15291102D-05  0.62550761D-01 -0.59108442D-02
  0.14710600D-02  0.47380113D-06 -0.45364511D-02  0.14487550D-01  0.13551389D-01
 -0.35784242D-03 -0.80483096D-05  0.15080390D-04  0.29614737D-01  0.50232199D-01
  0.57187583D-01  0.69138923D-02  0.29845413D-01  0.50623470D-01  0.57633031D-01
  0.73054898D-02  0.29848527D-01  0.50628752D-01  0.57639044D-01  0.73068243D-02
  0.49364384D-01  0.90856818D-01  0.14702348D+00  0.19326648D+00  0.16576354D+00
  0.56677369D-01  0.82191676D-01  0.36673766D-01 -0.10829812D+00 -0.55472106D+00
 -0.42738267D+00 -0.18764401D+00 -0.18521424D+00 -0.14269758D+00 -0.62651926D-01
  0.50937696D-04  0.39244749D-04  0.17230558D-04 -0.49658215D-01 -0.25428505D-01
 -0.95083174D-02  0.21661832D-05  0.17713878D-01 -0.16529052D-01 -0.27228285D-03
 -0.25377049D-01  0.12367820D-04  0.12700178D-04 -0.21340406D-01 -0.36197367D-01
 -0.41209423D-01 -0.43197820D-02
MO    5     MO 0.0        OCC NO =    2.0000000  ORB. ENERGY =   -0.683037
 -0.93026860D-02 -0.17161639D-01 -0.27704207D-01 -0.36062646D-01 -0.30772321D-01
 -0.10624943D-01 -0.11457378D-01 -0.52806949D-02  0.14807620D-01 -0.21651713D+00
 -0.16601160D+00 -0.82851424D-01  0.28865259D+00  0.22132050D+00  0.11045444D+00
  0.35192975D-04  0.26983741D-04  0.13466778D-04  0.13208525D-01 -0.73918965D-02
  0.13837996D-01  0.30429552D-05 -0.22274232D-01  0.24688794D-01 -0.44885247D-03
  0.12320133D-01 -0.20047521D-04 -0.39741222D-04  0.35121804D-01  0.59573226D-01
  0.67822013D-01  0.20560094D-01 -0.26570336D-03 -0.45068320D-03 -0.51308689D-03
 -0.12739551D-02 -0.30090555D-03 -0.51039277D-03 -0.58106413D-03 -0.12901537D-02
  0.33469535D-01  0.61601811D-01  0.99683359D-01  0.13103657D+00  0.11238930D+00
  0.38427811D-01  0.56633377D-01  0.25269702D-01 -0.74621770D-01  0.69940970D+00
  0.53885747D+00  0.23658745D+00  0.11380738D+01  0.87682453D+00  0.38497320D+00
 -0.22058461D-03 -0.16994855D-03 -0.74616566D-04 -0.43419450D-01  0.37218691D-01
  0.62759949D-01 -0.12648824D-04 -0.19138547D-01  0.41846331D-01 -0.58837800D-02
  0.12801341D-01 -0.12174591D-04 -0.33436475D-04  0.46055537D-01  0.78118907D-01
  0.88935615D-01  0.19286697D-01
MO    6     MO 0.0        OCC NO =    2.0000000  ORB. ENERGY =   -0.613822
  0.61038624D-05  0.11260434D-04  0.18177832D-04  0.23662137D-04  0.20190944D-04
  0.69714477D-05  0.10846649D-04  0.49992107D-05 -0.14018309D-04  0.17964450D-03
  0.13774001D-03  0.68741917D-04  0.34350732D-03  0.26337962D-03  0.13144489D-03
  0.49427084D+00  0.37897553D+00  0.18913535D+00 -0.63924169D-05  0.79585933D-05
  0.20466519D-04  0.29136520D-01  0.21599400D-04 -0.32536279D-04  0.12662705D-04
 -0.34064495D-04 -0.18026548D-01 -0.42503122D-01  0.17653079D-05  0.29942963D-05
  0.34089005D-05 -0.93235799D-06  0.39393911D-01  0.66819530D-01  0.76071673D-01
  0.23202734D-01 -0.39419525D-01 -0.66862976D-01 -0.76121135D-01 -0.23214312D-01
 -0.12398953D-04 -0.22820692D-04 -0.36928187D-04 -0.48543135D-04 -0.41635165D-04
 -0.14235770D-04 -0.21224326D-04 -0.94702529D-05  0.27965784D-04 -0.66274157D-03
 -0.51060665D-03 -0.22418382D-03  0.77253125D-06  0.59519368D-06  0.26132208D-06
  0.10542896D+01  0.81227332D+00  0.35663174D+00  0.16887459D-04 -0.37525892D-04
 -0.54065499D-06  0.62524026D-01  0.12662486D-04 -0.79027579D-05 -0.11186825D-04
 -0.35399522D-04 -0.24729908D-01  0.27600894D-01 -0.24945254D-04 -0.42311872D-04
 -0.48170571D-04 -0.13114872D-04
MO    7     MO 0.0        OCC NO =    2.0000000  ORB. ENERGY =   -0.587575
 -0.41031627D-03 -0.75695340D-03 -0.12219575D-02 -0.15906256D-02 -0.13572837D-02
 -0.46863744D-03  0.23720357D-03  0.10932691D-03 -0.30656406D-03 -0.38690902D+00
 -0.29665729D+00 -0.14805278D+00 -0.31180352D+00 -0.23907117D+00 -0.11931327D+00
  0.29979617D-03  0.22986469D-03  0.11471859D-03  0.95541687D-02 -0.18383624D-01
 -0.20304478D-01  0.19681595D-04 -0.29990080D-01 -0.26672908D-02  0.34014137D-01
  0.24512031D-01 -0.23171738D-04  0.34137332D-04 -0.19619089D-01 -0.33277689D-01
 -0.37885473D-01 -0.14042104D-01  0.29834962D-01  0.50605742D-01  0.57612849D-01
  0.18516282D-01  0.29815335D-01  0.50572451D-01  0.57574948D-01  0.18501250D-01
 -0.20322047D-01 -0.37403414D-01 -0.60525785D-01 -0.79562838D-01 -0.68240584D-01
 -0.23332615D-01 -0.36140428D-01 -0.16125789D-01  0.47619670D-01  0.11872145D+01
  0.91468473D+00  0.40159586D+00 -0.39006828D+00 -0.30052658D+00 -0.13194736D+00
  0.74826891D-03  0.57650086D-03  0.25311493D-03  0.25235806D-01  0.73379421D-01
 -0.23854844D-01  0.45781922D-04 -0.15601568D-01  0.22348048D-02  0.82190318D-02
  0.53157692D-01 -0.34141321D-04  0.21951935D-04  0.11136940D-01  0.18890357D-01
  0.21506004D-01  0.76434668D-02
MO    8     MO 0.0        OCC NO =    2.0000000  ORB. ENERGY =   -0.499192
 -0.53835447D-02 -0.99315887D-02 -0.16032664D-01 -0.20869764D-01 -0.17808208D-01
 -0.61487462D-02 -0.10048616D-01 -0.46313978D-02  0.12986923D-01  0.12217650D+00
  0.93677194D-01  0.46751485D-01 -0.39749589D+00 -0.30477463D+00 -0.15210390D+00
  0.18174356D-03  0.13934944D-03  0.69545135D-04  0.29078363D-03  0.33350626D-02
 -0.21672684D-01  0.12928741D-04  0.16092050D-01 -0.30441665D-01  0.15416029D-01
  0.51375039D-01 -0.15190930D-05  0.54804991D-04 -0.49460026D-01 -0.83893565D-01
 -0.95509858D-01 -0.41051013D-01  0.18490194D-01  0.31362869D-01  0.35705518D-01
  0.13673459D-01  0.18507727D-01  0.31392608D-01  0.35739375D-01  0.13685008D-01
  0.40772032D-01  0.75042304D-01  0.12143261D+00  0.15962657D+00  0.13691078D+00
  0.46812121D-01  0.67211757D-01  0.29989755D-01 -0.88560149D-01 -0.56440162D+00
 -0.43484102D+00 -0.19091863D+00  0.12050690D+01  0.92844072D+00  0.40763548D+00
  0.20761895D-03  0.15995921D-03  0.70230707D-04 -0.60446088D-01 -0.40045068D-01
  0.83388432D-01  0.14409481D-04  0.62082088D-02  0.29770604D-01 -0.86065332D-02
 -0.11373029D-01 -0.32453501D-05 -0.11850683D-04  0.28818931D-01  0.48882362D-01
  0.55650842D-01  0.16434543D-01
MO    9     MO 0.0        OCC NO =    2.0000000  ORB. ENERGY =   -0.442548
 -0.19366886D-05 -0.35728124D-05 -0.57676269D-05 -0.75077366D-05 -0.64063652D-05
 -0.22119640D-05 -0.32901062D-05 -0.15164069D-05  0.42521634D-05 -0.11802489D-04
 -0.90494001D-05 -0.45162849D-05  0.44033301D-05  0.33761943D-05  0.16849576D-05
 -0.31646379D+00 -0.24264436D+00 -0.12109654D+00  0.24258490D-05 -0.22131976D-06
  0.25853175D-05 -0.15979663D-01 -0.12540096D-04  0.36454275D-04 -0.27706181D-04
  0.16290796D-04  0.72717565D-01  0.30798509D-01  0.23808834D-04  0.40384290D-04
  0.45976086D-04  0.23754866D-04 -0.35331656D-01 -0.59929176D-01 -0.68227248D-01
 -0.32390768D-01  0.35309826D-01  0.59892149D-01  0.68185094D-01  0.32368156D-01
 -0.66238029D-05 -0.12191333D-04 -0.19727879D-04 -0.25932849D-04 -0.22242453D-04
 -0.76050726D-05 -0.10126682D-04 -0.45185058D-05  0.13343208D-04  0.10964448D-03
  0.84475158D-04  0.37089144D-04  0.43225392D-03  0.33302834D-03  0.14621738D-03
  0.17061530D+01  0.13144989D+01  0.57713582D+00  0.10177945D-04  0.70582145D-05
  0.32100008D-04  0.12681428D+00 -0.71409698D-06  0.13144275D-04 -0.18777823D-04
 -0.41839831D-05 -0.11582977D-01  0.46397426D-01 -0.60202744D-05 -0.10211525D-04
 -0.11625460D-04 -0.28502664D-05
END DATA
 TOTAL ENERGY =   -115.343769427550 THE VIRIAL(-V/T)=   2.00269674
